# vtk DataFile Version 3.0
vtk output
ASCII
DATASET POLYDATA
POINTS 4002 float
10.5483 17.6951 9.85883 7.71418 10.6686 27.6501 17.6665 14.9815 8.39781 
22.2721 9.18851 25.8553 10.7133 7.1372 17.2245 16.4629 7.08055 14.8432 
13.571 17.3571 18.9756 17.638 16.0644 19.6725 13.4031 4.61393 29.7716 
12.0388 12.3562 2.26531 17.2179 12.3404 32.3956 13.3007 25.0412 5.51146 
10.6605 17.2495 10.4011 10.7835 16.7614 11.0068 10.916 16.2494 11.6753 
11.0336 15.7394 12.4192 11.0943 15.2501 13.2718 11.064 14.7751 14.2755 
10.9452 14.2823 15.4464 10.781 13.7388 16.7409 10.6197 13.1494 18.0616 
10.4696 12.572 19.3105 10.2903 12.0852 20.4455 10.033 11.7329 21.488 
9.69007 11.4972 22.4776 9.30394 11.3224 23.425 8.93242 11.1634 24.3073 
8.60963 11.011 25.1001 8.33648 10.881 25.8046 8.09876 10.7868 26.4469 
7.88896 10.723 27.0569 10.5361 17.1941 9.92145 10.5111 16.6264 10.0384 
10.4778 15.9953 10.2222 10.4535 15.3246 10.4718 10.4622 14.655 10.769 
10.5197 14.0275 11.086 10.6186 13.4616 11.4038 10.7261 12.9431 11.7279 
10.8025 12.4346 12.0876 10.8261 11.9022 12.5134 10.8055 11.3376 13.0121 
10.7676 10.76 13.5601 10.735 10.1981 14.1198 10.7132 9.67082 14.6621 
10.6955 9.18067 15.1743 10.6764 8.72078 15.6541 10.6593 8.28482 16.1005 
10.6544 7.87233 16.511 10.6713 7.48788 16.8845 10.638 17.8932 10.1425 
10.763 18.0659 10.44 10.9328 18.2125 10.7397 11.151 18.3352 11.0315 
11.4102 18.4374 11.3152 11.6906 18.5214 11.6054 11.9652 18.5859 11.9281 
12.2096 18.6266 12.3063 12.4117 18.6395 12.7469 12.5749 18.6241 13.2371 
12.7131 18.5824 13.756 12.8424 18.5146 14.2883 12.9715 18.4167 14.8308 
13.0985 18.2855 15.3886 13.2137 18.1249 15.9675 13.3074 17.9489 16.5688 
13.3783 17.7755 17.186 13.4355 17.6181 17.8053 13.4948 17.4803 18.4082 
10.4413 17.8122 9.36617 10.3492 17.8962 8.8603 10.2682 17.9415 8.34236 
10.1942 17.9474 7.80909 10.1276 17.9155 7.25834 10.0786 17.8444 6.69613 
10.0641 17.7267 6.13748 10.0953 17.5499 5.59741 10.1619 17.3039 5.07981 
10.2306 16.9868 4.57753 10.267 16.6039 4.08615 10.2673 16.1631 3.618 
10.2692 15.6728 3.20103 10.33 15.1464 2.86366 10.4881 14.6056 2.61956 
10.741 14.0772 2.46314 11.0541 13.5838 2.37462 11.3874 13.1356 2.3281 
11.7167 12.7296 2.29829 10.4686 18.2502 9.53387 10.3523 18.823 9.23564 
10.2053 19.4319 8.95214 10.0484 20.0866 8.66991 9.90301 20.7736 8.38121 
9.77027 21.4568 8.08824 9.62705 22.0977 7.79913 9.45096 22.6821 7.51682 
9.25807 23.2222 7.23034 9.11338 23.7281 6.91983 9.09468 24.1771 6.57512 
9.24141 24.52 6.21245 9.5383 24.7241 5.87254 9.94439 24.8094 5.59956 
10.4296 24.8401 5.41849 10.9816 24.8797 5.32766 11.586 24.9512 5.30831 
12.2081 25.0312 5.33985 12.7962 25.0741 5.40925 7.64983 10.3456 27.3556 
7.61057 10.0072 27.0318 7.58597 9.66923 26.6689 7.56907 9.34435 26.2558 
7.56313 9.03612 25.7877 7.58139 8.73788 25.2703 7.6371 8.43909 24.7182 
7.73219 8.13542 24.1457 7.85731 7.83485 23.5605 8.00604 7.55465 22.9661 
8.1877 7.31279 22.37 8.42129 7.12085 21.7848 8.71417 6.98243 21.2189 
9.04817 6.89537 20.6668 9.38809 6.85454 20.1118 9.70373 6.85396 19.5392 
9.98482 6.88791 18.9485 10.239 6.95087 18.3537 10.4792 7.03659 17.7741 
7.91217 11.0041 27.553 8.16249 11.3152 27.4174 8.46352 11.6025 27.2436 
8.80532 11.8719 27.0406 9.17702 12.1323 26.8179 9.57528 12.3907 26.5704 
10.0035 12.6494 26.2663 10.4589 12.908 25.8551 10.9194 13.1695 25.3017 
11.3466 13.4447 24.6218 11.7086 13.7505 23.8837 12.0006 14.1001 23.1683 
12.2432 14.4937 22.521 12.4629 14.9176 21.9369 12.6736 15.3516 21.3861 
12.8761 15.7789 20.8482 13.0671 16.1914 20.3258 13.246 16.5891 19.8338 
13.4143 16.9761 19.3836 7.52919 10.3869 28.0629 7.38855 10.0326 28.4747 
7.3103 9.60545 28.8742 7.3111 9.12648 29.246 7.40135 8.63264 29.5711 
7.5794 8.15892 29.8328 7.82904 7.71899 30.0284 8.12468 7.29984 30.1776 
8.44426 6.87709 30.3149 8.78173 6.44015 30.4629 9.14766 6.00636 30.6087 
9.55625 5.61278 30.7079 10.0103 5.29383 30.7184 10.4973 5.06292 30.6335 
10.9987 4.90949 30.4852 11.5001 4.80944 30.3197 11.9953 4.73908 30.168 
12.4813 4.68417 30.0352 12.9533 4.6413 29.9085 7.69309 10.8264 28.208 
7.73749 10.9725 28.8006 7.87124 11.0863 29.3949 8.10884 11.1574 29.942 
8.45165 11.1924 30.401 8.88826 11.2131 30.7662 9.39718 11.2453 31.0752 
9.95052 11.3052 31.3831 10.5197 11.3945 31.7189 11.085 11.5063 32.0649 
11.6449 11.6341 32.3778 12.2161 11.7753 32.6277 12.8201 11.9244 32.814 
13.4658 12.0685 32.9464 14.1417 12.1897 33.0222 14.8224 12.2743 33.0264 
15.4822 12.3198 32.949 16.1046 12.3358 32.7997 16.6831 12.3378 32.6053 
17.821 14.7169 9.06441 18.003 14.4198 9.77673 18.2135 14.0955 10.5316 
18.441 13.7576 11.3363 18.6664 13.4198 12.2059 18.8768 13.0835 13.1531 
19.0769 12.7325 14.1767 19.2855 12.3457 15.2585 19.5186 11.9204 16.3717 
19.7732 11.486 17.4918 20.0299 11.089 18.5998 20.2728 10.7607 19.6796 
20.5039 10.4982 20.7151 20.7383 10.2758 21.6919 20.9883 10.0699 22.5983 
21.2533 9.87342 23.4246 21.5233 9.68952 24.1629 21.7874 9.51923 24.8096 
22.0385 9.35567 25.3691 17.7614 14.5742 8.45824 17.8339 14.1202 8.53478 
17.876 13.6272 8.64178 17.8875 13.1158 8.79484 17.875 12.6122 9.00076 
17.8462 12.1359 9.25165 17.8029 11.6894 9.53068 17.7418 11.2589 9.82642 
17.662 10.8283 10.1421 17.5709 10.3936 10.489 17.4809 9.96518 10.8711 
17.3982 9.55725 11.2782 17.3174 9.17637 11.6957 17.2269 8.81924 12.1177 
17.119 8.47947 12.5493 16.9948 8.15474 12.9971 16.8616 7.84821 13.46 
16.7269 7.56519 13.9286 16.5941 7.30926 14.3921 17.6476 15.2027 8.74868 
17.6208 15.4014 9.1245 17.5929 15.5742 9.53819 17.5694 15.7232 10.0055 
17.5499 15.8537 10.5341 17.5253 15.969 11.114 17.4837 16.0636 11.7193 
17.42 16.1244 12.3252 17.3436 16.1421 12.926 17.2738 16.1224 13.5387 
17.2282 16.0858 14.1857 17.2131 16.0528 14.873 17.2252 16.0294 15.5832 
17.2578 16.0086 16.2875 17.3058 15.9835 16.962 17.3648 15.9583 17.594 
17.4305 15.9462 18.1799 17.4991 15.9596 18.7198 17.5684 16.0014 19.2158 
17.5859 14.9814 7.78013 17.5042 14.962 7.14782 17.4182 14.9284 6.51792 
17.3209 14.8812 5.9098 17.204 14.8123 5.33342 17.0661 14.7064 4.77995 
16.9206 14.5512 4.22715 16.7918 14.3478 3.66265 16.6902 14.1129 3.10829 
16.5846 13.8694 2.61939 16.4005 13.6343 2.25288 16.0624 13.4137 2.03073 
15.5498 13.2086 1.93143 14.9188 13.0215 1.91262 14.2679 12.8581 1.93871 
13.6807 12.722 1.99035 13.1882 12.6113 2.05737 12.773 12.5186 2.13049 
12.3987 12.4354 2.20098 17.508 15.3773 7.96643 17.3323 15.7882 7.54305 
17.134 16.2288 7.14344 16.9121 16.7178 6.77849 16.6738 17.2695 6.44911 
16.4323 17.8847 6.14765 16.1993 18.5477 5.86657 15.9762 19.2346 5.60807 
15.7531 19.926 5.38461 15.5224 20.6156 5.2075 15.2925 21.304 5.07354 
15.0881 21.985 4.96469 14.9295 22.6379 4.86394 14.8111 23.2344 4.77353 
14.6972 23.7513 4.71815 14.5418 24.1782 4.72974 14.3148 24.5151 4.82714 
14.0152 24.7666 5.00589 13.6664 24.9391 5.24324 21.914 9.05554 25.6226 
21.5379 8.915 25.3352 21.1473 8.76636 24.9921 20.7488 8.61588 24.5973 
20.3544 8.47108 24.1538 19.9796 8.33261 23.6576 19.6369 8.19123 23.0993 
19.3282 8.0353 22.4741 19.0446 7.86402 21.7947 18.7734 7.69355 21.0908 
18.5079 7.54778 20.3937 18.2486 7.44114 19.7186 17.9995 7.36925 19.0607 
17.7613 7.31508 18.4074 17.5311 7.26313 17.7536 17.3061 7.20862 17.1074 
17.0856 7.15669 16.4837 16.8707 7.11556 15.8955 16.663 7.09027 15.349 
22.4773 9.4382 25.7678 22.6662 9.7194 25.6509 22.8239 10.0442 25.5052 
22.9267 10.4222 25.3411 22.9458 10.8518 25.1788 22.8573 11.3133 25.0392 
22.6531 11.7711 24.9277 22.3477 12.1895 24.8222 21.9729 12.5521 24.6789 
21.5641 12.8712 24.4567 21.1457 13.1762 24.1417 20.726 13.4906 23.7504 
20.3039 13.8177 23.3108 19.8786 14.1455 22.8405 19.4556 14.4629 22.3424 
19.0444 14.77 21.8156 18.6537 15.0766 21.2674 18.2885 15.3931 20.7152 
17.95 15.7234 20.1786 22.2671 8.92452 26.1845 22.2314 8.6377 26.5183 
22.1513 8.33249 26.8571 22.0037 8.02081 27.1992 21.7628 7.72023 27.543 
21.4142 7.44799 27.8888 20.9648 7.21292 28.2379 20.438 7.01033 28.5876 
19.8567 6.82431 28.9258 19.2322 6.63716 29.2315 18.5703 6.4392 29.4822 
17.888 6.23148 29.6639 17.216 6.0205 29.7775 16.5831 5.81112 29.8363 
15.9985 5.60371 29.8596 15.4508 5.39642 29.8641 14.9219 5.18909 29.8589 
14.4017 4.98511 29.8448 13.8923 4.79091 29.8176 22.6347 9.15793 26.2595 
23.0006 9.12277 26.67 23.336 9.10272 27.1263 23.5969 9.12716 27.6667 
23.7396 9.22326 28.2992 23.7364 9.39991 28.9775 23.586 9.63942 29.6124 
23.3135 9.90711 30.1209 22.9558 10.1741 30.4844 22.5434 10.4337 30.7599 
22.0894 10.6954 31.0309 21.5917 10.9624 31.3384 21.0459 11.2188 31.6558 
20.4579 11.439 31.9239 19.8484 11.6101 32.1045 19.246 11.7432 32.2039 
18.6754 11.8657 32.2576 18.149 12.0024 32.3005 17.6662 12.1631 32.3479 
10.9023 6.99964 17.0952 11.1108 6.86548 16.9597 11.3303 6.73018 16.8136 
11.5561 6.59165 16.6553 11.7912 6.45496 16.4869 12.0453 6.33304 16.312 
12.3292 6.23963 16.1315 12.6486 6.1784 15.9422 13.0018 6.13913 15.7404 
13.3817 6.10805 15.53 13.7775 6.08452 15.3261 14.1752 6.08613 15.149 
14.5592 6.1349 15.0135 14.9153 6.23752 14.9221 15.2366 6.37893 14.8664 
15.5245 6.53353 14.8348 15.7857 6.68173 14.8189 16.0272 6.81811 14.8151 
16.2527 6.94828 14.823 10.6314 6.74171 17.8907 10.5644 6.36175 18.5862 
10.5105 6.01 19.3167 10.4648 5.68472 20.0774 10.422 5.36531 20.8493 
10.3803 5.0196 21.6045 10.3432 4.62465 22.3211 10.3228 4.19136 22.9968 
10.3404 3.77348 23.6482 10.4224 3.44689 24.2972 10.5875 3.26778 24.9577 
10.8337 3.23988 25.6321 11.1361 3.31724 26.3159 11.4608 3.43944 26.9974 
11.7837 3.56936 27.6543 12.0993 3.70605 28.255 12.4144 3.86999 28.7701 
12.7369 4.0789 29.186 13.0681 4.33273 29.5115 10.9198 7.46123 16.468 
11.1401 7.80138 15.6644 11.3612 8.1388 14.8071 11.5593 8.45708 13.8801 
11.7084 8.74954 12.8623 11.7959 9.0218 11.7428 11.8318 9.2845 10.5394 
11.8384 9.5376 9.30511 11.824 9.7579 8.10957 11.764 9.90545 7.00458 
11.6184 9.95239 6.00423 11.3779 9.91543 5.09926 11.0959 9.86296 4.29035 
10.872 9.88601 3.60427 10.7953 10.0523 3.0765 10.8954 10.3765 2.71993 
11.1364 10.8231 2.50991 11.447 11.3336 2.39581 11.7607 11.8552 2.32573 
[...]
POINT_DATA 4002
FIELD FieldData 2
PhiColorMap 1 4002 float
100 50 100 50 75 75 25 25 59 
91 41 9 100 100 100 100 100 100 
100 100 100 50 50 50 50 50 50 
50 50 50 50 99 97 96 94 92 
90 89 87 85 84 82 81 80 79 
78 77 77 76 76 1 3 4 6 
8 10 11 13 15 16 18 19 20 
21 22 23 23 24 24 99 99 98 
97 97 96 96 95 95 94 94 93 
93 93 92 92 92 92 91 1 1 
2 3 3 4 4 5 5 6 6 
7 7 7 8 8 8 8 9 51 
53 54 56 58 60 61 63 65 66 
68 69 70 71 72 73 73 74 74 
49 47 46 44 42 40 39 37 35 
34 32 31 30 29 28 27 27 26 
26 51 51 52 53 53 54 54 55 
55 56 56 57 57 57 58 58 58 
58 59 49 49 48 47 47 46 46 
45 45 44 44 43 43 43 42 42 
42 42 41 100 100 100 100 100 100 
100 100 100 50 50 50 50 50 50 
50 50 50 50 99 97 96 94 92 
90 89 87 85 84 82 81 80 79 
78 77 77 76 76 1 3 4 6 
8 10 11 13 15 16 18 19 20 
21 22 23 23 24 24 99 99 98 
97 97 96 96 95 95 94 94 93 
93 93 92 92 92 92 91 1 1 
2 3 3 4 4 5 5 6 6 
7 7 7 8 8 8 8 9 51 
53 54 56 58 60 61 63 65 66 
68 69 70 71 72 73 73 74 74 
49 47 46 44 42 40 39 37 35 
34 32 31 30 29 28 27 27 26 
26 51 51 52 53 53 54 54 55 
55 56 56 57 57 57 58 58 58 
58 59 49 49 48 47 47 46 46 
45 45 44 44 43 43 43 42 42 
42 42 41 75 75 75 75 75 75 
75 75 75 75 75 75 75 75 75 
75 75 75 75 74 73 72 72 71 
70 69 68 67 66 65 64 64 63 
62 61 61 60 59 76 77 78 78 
79 80 81 82 83 84 85 86 86 
87 88 89 89 90 91 74 73 72 
72 71 70 69 68 67 66 65 64 
64 63 62 61 61 60 59 76 77 
78 78 79 80 81 82 83 84 85 
86 86 87 88 89 89 90 91 25 
25 25 25 25 25 25 25 25 25 
25 25 25 25 25 25 25 25 25 
26 27 28 28 29 30 31 32 33 
34 35 36 36 37 38 39 39 40 
41 24 23 22 22 21 20 19 18 
17 16 15 14 14 13 12 11 11 
10 9 26 27 28 28 29 30 31 
32 33 34 35 36 36 37 38 39 
39 40 41 24 23 22 22 21 20 
19 18 17 16 15 14 14 13 12 
11 11 10 9 58 57 56 56 55 
54 53 52 51 50 49 48 47 46 
45 44 44 43 42 92 93 94 94 
95 96 97 98 99 100 1 2 3 
4 5 6 6 7 8 98 97 98 
95 96 98 93 94 96 98 91 92 
93 95 97 89 90 91 92 94 96 
87 88 88 89 90 92 95 85 86 
86 86 87 88 89 92 84 84 84 
84 84 84 84 84 84 82 82 82 
82 81 81 80 78 75 66 81 81 
80 80 79 78 77 75 72 66 58 
80 79 79 78 77 76 75 73 70 
66 61 55 79 78 78 77 76 75 
74 72 69 66 62 58 54 78 77 
77 76 75 74 73 71 69 66 63 
60 56 53 77 76 76 75 74 73 
72 70 68 66 64 61 58 55 52 
76 76 75 74 73 72 71 70 68 
66 64 62 59 57 54 52 76 75 
74 74 73 72 71 69 68 66 64 
62 60 58 56 54 52 75 74 74 
73 72 71 70 69 68 66 65 63 
61 59 57 55 53 52 98 97 96 
97 96 95 96 95 94 93 95 95 
94 93 92 95 94 93 92 91 90 
94 94 93 92 91 90 88 94 93 
92 91 90 89 88 87 94 93 92 
91 90 89 88 87 85 93 92 92 
91 90 89 88 86 85 84 93 92 
91 90 89 88 87 86 85 84 83 
92 92 91 90 89 88 87 86 85 
84 83 81 92 91 91 90 89 88 
87 86 85 84 83 81 80 92 91 
90 90 89 88 87 86 85 84 83 
82 80 79 92 91 90 89 89 88 
87 86 85 84 83 82 81 80 78 
91 91 90 89 88 88 87 86 85 
84 83 82 81 80 79 78 91 90 
90 89 88 87 87 86 85 84 83 
82 81 80 79 78 77 91 90 90 
89 88 87 86 86 85 84 83 82 
81 80 79 78 77 76 90 89 89 
89 89 89 88 88 88 88 87 87 
87 87 87 86 86 86 86 86 86 
86 86 86 86 86 86 86 85 85 
85 85 85 85 85 85 84 84 84 
84 84 84 84 84 84 83 83 83 
83 83 83 83 83 83 83 82 82 
82 82 82 82 82 82 82 82 82 
81 81 81 81 81 81 81 81 81 
81 81 81 80 80 80 80 80 80 
80 80 80 80 80 80 80 79 79 
79 79 79 79 79 79 79 79 79 
79 79 79 78 78 78 78 78 78 
78 78 78 78 78 78 78 78 78 
78 78 78 78 78 78 78 78 78 
78 78 78 78 78 78 78 77 77 
77 77 77 77 77 77 77 77 77 
77 77 77 77 77 77 76 76 76 
76 76 76 76 76 76 76 76 76 
76 76 76 76 76 76 74 74 73 
74 73 72 74 73 72 72 74 73 
72 72 71 74 73 72 72 71 70 
74 73 72 72 71 70 69 74 73 
72 72 71 70 69 68 74 73 72 
72 71 70 69 68 67 74 73 72 
72 71 70 69 68 67 66 74 73 
72 72 71 70 69 68 67 66 65 
74 73 72 72 71 70 69 68 67 
66 65 64 74 73 72 72 71 70 
69 68 67 66 65 64 64 74 73 
72 72 71 70 69 68 67 66 65 
64 64 63 74 73 72 72 71 70 
69 68 67 66 65 64 64 63 62 
74 73 72 72 71 70 69 68 67 
66 65 64 64 63 62 61 74 73 
72 72 71 70 69 68 67 66 65 
64 64 63 62 61 61 74 73 72 
72 71 70 69 68 67 66 65 64 
64 63 62 61 61 60 74 73 73 
72 72 72 71 71 71 72 70 70 
70 70 71 69 69 69 69 70 70 
68 68 68 68 68 69 69 67 67 
67 67 67 67 67 67 66 66 66 
66 66 66 66 66 66 65 65 65 
65 65 65 65 65 65 65 64 64 
64 64 64 64 64 64 64 63 63 
64 63 63 63 63 63 63 63 62 
62 62 62 63 63 62 62 62 62 
62 62 61 61 61 60 60 62 62 
62 61 61 61 61 61 60 60 60 
59 59 58 61 61 61 61 60 60 
60 60 59 59 59 58 58 57 57 
60 60 60 60 60 59 59 59 58 
58 58 57 57 56 56 55 60 60 
59 59 59 59 58 58 58 57 57 
56 56 55 55 54 54 59 59 59 
58 58 58 58 57 57 56 56 56 
55 55 54 53 53 52 58 57 58 
56 57 57 55 56 56 57 54 55 
56 56 57 53 54 55 55 56 56 
52 53 54 54 55 55 56 51 52 
53 53 54 54 55 56 51 51 52 
52 53 53 54 55 55 49 50 51 
51 52 52 53 53 54 55 49 49 
49 50 51 51 52 52 53 54 54 
48 48 48 49 49 50 51 51 52 
52 53 54 47 47 47 48 48 49 
49 50 51 51 52 53 53 46 46 
46 47 47 48 48 49 49 50 51 
51 52 53 45 45 45 46 46 47 
47 48 48 49 49 50 51 51 52 
44 44 44 45 45 46 46 47 47 
48 48 49 49 50 51 51 43 43 
44 44 44 45 45 45 46 46 47 
47 48 49 49 50 51 42 42 43 
43 43 44 44 44 45 45 46 46 
47 47 48 49 49 50 58 58 57 
57 57 56 57 56 56 55 57 56 
56 55 54 56 56 55 55 54 53 
56 55 55 54 54 53 52 56 55 
54 54 53 53 52 51 55 55 54 
53 53 52 52 51 51 55 54 53 
53 52 52 51 51 50 49 54 54 
53 52 52 51 51 50 49 49 49 
54 53 52 52 51 51 50 49 49 
48 48 48 53 53 52 51 51 50 
49 49 48 48 47 47 47 53 52 
51 51 50 49 49 48 48 47 47 
46 46 46 52 51 51 50 49 49 
48 48 47 47 46 46 45 45 45 
51 51 50 49 49 48 48 47 47 
46 46 45 45 44 44 44 51 50 
49 49 48 47 47 46 46 45 45 
45 44 44 44 43 43 50 49 49 
48 47 47 46 46 45 45 44 44 
44 43 43 43 42 42 74 73 73 
72 72 72 72 71 71 71 71 70 
70 70 70 70 70 69 69 69 69 
69 69 68 68 68 68 68 67 67 
67 67 67 67 67 67 66 66 66 
66 66 66 66 66 66 65 65 65 
65 65 65 65 65 65 65 63 63 
64 64 64 64 64 64 64 64 64 
62 62 62 62 63 63 63 63 63 
63 63 64 60 60 61 61 61 62 
62 62 62 62 62 63 63 58 59 
59 60 60 60 61 61 61 61 61 
62 62 62 57 57 58 58 59 59 
59 60 60 60 60 61 61 61 61 
55 56 56 57 57 58 58 58 59 
59 59 60 60 60 60 60 54 54 
55 55 56 56 57 57 58 58 58 
59 59 59 59 60 60 52 53 53 
54 55 55 56 56 56 57 57 58 
58 58 58 59 59 59 75 76 74 
76 75 74 77 76 74 73 78 76 
75 74 72 79 77 76 74 73 71 
80 78 77 75 73 72 70 81 79 
78 76 74 72 71 69 82 81 79 
77 75 73 71 69 68 84 82 80 
78 76 74 72 70 68 66 85 84 
82 80 77 75 73 70 68 66 65 
87 86 84 82 79 76 74 71 68 
66 64 63 89 88 86 84 81 78 
75 72 69 66 64 62 61 91 90 
88 86 84 81 77 73 69 66 64 
62 60 59 93 92 91 89 87 84 
80 75 70 66 63 61 59 58 57 
95 94 93 92 90 88 84 78 72 
66 62 60 58 57 56 55 97 96 
96 95 94 92 89 84 75 66 61 
58 56 55 54 54 53 98 98 98 
98 97 96 95 92 84 66 58 55 
54 53 52 52 52 52 2 3 2 
5 4 2 7 6 4 2 9 8 
7 5 3 11 10 9 8 6 4 
13 12 12 11 10 8 5 15 14 
14 14 13 12 11 8 16 16 16 
16 16 16 16 16 16 18 18 18 
18 19 19 20 22 25 34 19 19 
20 20 21 22 23 25 28 34 42 
20 21 21 22 23 24 25 27 30 
34 39 45 21 22 22 23 24 25 
26 28 31 34 38 42 46 22 23 
23 24 25 26 27 29 31 34 37 
40 44 47 23 24 24 25 26 27 
28 30 32 34 36 39 42 45 48 
24 24 25 26 27 28 29 30 32 
34 36 38 41 43 46 48 24 25 
26 26 27 28 29 31 32 34 36 
38 40 42 44 46 48 25 26 26 
27 28 29 30 31 32 34 35 37 
39 41 43 45 47 48 26 27 27 
28 28 28 29 29 29 28 30 30 
30 30 29 31 31 31 31 30 30 
32 32 32 32 32 31 31 33 33 
33 33 33 33 33 33 34 34 34 
34 34 34 34 34 34 35 35 35 
35 35 35 35 35 35 35 36 36 
36 36 36 36 36 36 36 37 37 
36 37 37 37 37 37 37 37 38 
38 38 38 37 37 38 38 38 38 
38 38 39 39 39 40 40 38 38 
38 39 39 39 39 39 40 40 40 
41 41 42 39 39 39 39 40 40 
40 40 41 41 41 42 42 43 43 
40 40 40 40 40 41 41 41 42 
42 42 43 43 44 44 45 40 40 
41 41 41 41 42 42 42 43 43 
44 44 45 45 46 46 41 41 41 
42 42 42 42 43 43 44 44 44 
45 45 46 47 47 48 26 26 27 
26 27 28 26 27 28 28 26 27 
28 28 29 26 27 28 28 29 30 
26 27 28 28 29 30 31 26 27 
28 28 29 30 31 32 26 27 28 
28 29 30 31 32 33 26 27 28 
28 29 30 31 32 33 34 26 27 
28 28 29 30 31 32 33 34 35 
26 27 28 28 29 30 31 32 33 
34 35 36 26 27 28 28 29 30 
31 32 33 34 35 36 36 26 27 
28 28 29 30 31 32 33 34 35 
36 36 37 26 27 28 28 29 30 
31 32 33 34 35 36 36 37 38 
26 27 28 28 29 30 31 32 33 
34 35 36 36 37 38 39 26 27 
28 28 29 30 31 32 33 34 35 
36 36 37 38 39 39 26 27 28 
28 29 30 31 32 33 34 35 36 
36 37 38 39 39 40 24 23 24 
22 23 24 22 22 23 24 21 22 
22 23 24 20 21 22 22 23 24 
19 20 21 22 22 23 24 18 19 
20 21 22 22 23 24 17 18 19 
20 21 22 22 23 24 16 17 18 
19 20 21 22 22 23 24 15 16 
17 18 19 20 21 22 22 23 24 
14 15 16 17 18 19 20 21 22 
22 23 24 14 14 15 16 17 18 
19 20 21 22 22 23 24 13 14 
14 15 16 17 18 19 20 21 22 
22 23 24 12 13 14 14 15 16 
17 18 19 20 21 22 22 23 24 
11 12 13 14 14 15 16 17 18 
19 20 21 22 22 23 24 11 11 
12 13 14 14 15 16 17 18 19 
20 21 22 22 23 24 10 11 11 
12 13 14 14 15 16 17 18 19 
20 21 22 22 23 24 9 9 10 
9 10 10 8 9 10 11 8 9 
10 11 12 8 9 10 11 12 13 
8 9 10 11 12 13 14 7 8 
9 10 11 12 13 14 7 8 9 
10 11 12 13 14 15 6 8 9 
10 11 12 13 14 15 16 6 7 
8 10 11 12 13 14 15 16 17 
6 7 8 9 11 12 13 14 15 
16 17 18 5 6 8 9 10 12 
13 14 15 16 17 18 19 5 6 
7 9 10 11 13 14 15 16 17 
18 19 20 4 5 7 8 10 11 
12 14 15 16 17 18 19 20 21 
3 5 6 8 9 11 12 14 15 
16 17 18 19 20 21 22 3 4 
6 7 9 10 12 13 15 16 17 
19 20 20 21 22 23 2 4 5 
7 8 10 12 13 15 16 17 19 
20 21 22 22 23 24 2 2 3 
2 4 5 2 4 6 7 3 5 
7 8 9 4 6 8 9 10 11 
5 8 10 11 12 12 13 8 11 
12 13 14 14 14 15 16 16 16 
16 16 16 16 16 16 34 25 22 
20 19 19 18 18 18 18 42 34 
28 25 23 22 21 20 20 19 19 
45 39 34 30 27 25 24 23 22 
21 21 20 46 42 38 34 31 28 
26 25 24 23 22 22 21 47 44 
40 37 34 31 29 27 26 25 24 
23 23 22 48 45 42 39 36 34 
32 30 28 27 26 25 24 24 23 
48 46 43 41 38 36 34 32 30 
29 28 27 26 25 24 24 48 46 
44 42 40 38 36 34 32 31 29 
28 27 26 26 25 24 48 47 45 
43 41 39 37 35 34 32 31 30 
29 28 27 26 26 25 26 27 27 
28 28 28 28 29 29 29 29 30 
30 30 30 30 30 31 31 31 31 
31 31 32 32 32 32 32 33 33 
33 33 33 33 33 33 34 34 34 
34 34 34 34 34 34 35 35 35 
35 35 35 35 35 35 35 37 37 
36 36 36 36 36 36 36 36 36 
38 38 38 38 37 37 37 37 37 
37 37 36 40 40 39 39 39 38 
38 38 38 38 38 37 37 42 41 
41 40 40 40 39 39 39 39 39 
38 38 38 43 43 42 42 41 41 
41 40 40 40 40 39 39 39 39 
45 44 44 43 43 42 42 42 41 
41 41 40 40 40 40 40 46 46 
45 45 44 44 43 43 42 42 42 
41 41 41 41 40 40 48 47 47 
46 45 45 44 44 44 43 43 42 
42 42 42 41 41 41 92 92 93 
93 93 94 93 94 94 95 93 94 
94 95 96 94 94 95 95 96 97 
94 95 95 96 96 97 98 94 95 
96 96 97 97 98 99 95 95 96 
97 97 98 98 99 99 95 96 97 
97 98 98 99 99 100 1 96 96 
97 98 98 99 99 0 1 1 1 
96 97 98 98 99 99 100 1 1 
2 2 2 97 97 98 99 99 100 
1 1 2 2 3 3 3 97 98 
99 99 0 1 1 2 2 3 3 
4 4 4 98 99 99 0 1 1 
2 2 3 3 4 4 5 5 5 
99 99 100 1 1 2 2 3 3 
4 4 5 5 6 6 6 99 0 
1 1 2 3 3 4 4 5 5 
5 6 6 6 7 7 0 1 1 
2 3 3 4 4 5 5 6 6 
6 7 7 7 8 8 92 93 92 
94 93 93 95 94 94 93 96 95 
94 94 93 97 96 95 95 94 94 
98 97 96 96 95 95 94 99 98 
97 97 96 96 95 94 99 99 98 
98 97 97 96 95 95 1 100 99 
99 98 98 97 97 96 95 1 1 
1 0 99 99 98 98 97 96 96 
2 2 2 1 1 100 99 99 98 
98 97 96 3 3 3 2 2 1 
1 100 99 99 98 97 97 4 4 
4 3 3 2 2 1 1 0 99 
99 98 97 5 5 5 4 4 3 
3 2 2 1 1 100 99 99 98 
6 6 6 5 5 4 4 3 3 
2 2 1 1 100 99 99 7 7 
6 6 6 5 5 5 4 4 3 
3 2 1 1 0 99 8 8 7 
7 7 6 6 6 5 5 4 4 
3 3 2 1 1 100 91 91 90 
91 90 90 92 91 90 89 92 91 
90 89 88 92 91 90 89 88 87 
92 91 90 89 88 87 86 93 92 
91 90 89 88 87 86 93 92 91 
90 89 88 87 86 85 94 92 91 
90 89 88 87 86 85 84 94 93 
92 90 89 88 87 86 85 84 83 
94 93 92 91 89 88 87 86 85 
84 83 82 95 94 92 91 90 88 
87 86 85 84 83 82 81 95 94 
93 91 90 89 87 86 85 84 83 
82 81 80 96 95 93 92 90 89 
88 86 85 84 83 82 81 80 79 
97 95 94 92 91 89 88 86 85 
84 83 82 81 80 79 78 97 96 
94 93 91 90 88 87 85 84 83 
81 80 80 79 78 77 98 96 95 
93 92 90 88 87 85 84 83 81 
80 79 78 78 77 76 24 23 23 
22 22 22 22 21 21 21 21 20 
20 20 20 20 20 19 19 19 19 
19 19 18 18 18 18 18 17 17 
17 17 17 17 17 17 16 16 16 
16 16 16 16 16 16 15 15 15 
15 15 15 15 15 15 15 13 13 
14 14 14 14 14 14 14 14 14 
12 12 12 12 13 13 13 13 13 
13 13 14 10 10 11 11 11 12 
12 12 12 12 12 13 13 8 9 
9 10 10 10 11 11 11 11 11 
12 12 12 7 7 8 8 9 9 
9 10 10 10 10 11 11 11 11 
5 6 6 7 7 8 8 8 9 
9 9 10 10 10 10 10 4 4 
5 5 6 6 7 7 8 8 8 
9 9 9 9 10 10 2 3 3 
4 5 5 6 6 6 7 7 8 
8 8 8 9 9 9 
PhiColorMap_original 1 4002 float
6.28319 3.14159 6.28319 3.14159 4.71239 4.71239 1.5708 1.5708 3.69517 
5.72961 2.58802 0.553574 6.28319 6.28319 6.28319 6.28319 6.28319 6.28319 
6.28319 6.28319 6.28319 3.14159 3.14159 3.14159 3.14159 3.14159 3.14159 
3.14159 3.14159 3.14159 3.14159 6.19823 6.1053 6.00505 5.8988 5.78856 
5.67687 5.56648 5.45995 5.35932 5.26596 5.18056 5.10322 5.03365 4.97131 
4.91556 4.86569 4.82102 4.78095 4.74491 0.0849547 0.177881 0.278134 0.384387 
0.494626 0.606312 0.716702 0.823235 0.923864 1.01722 1.10263 1.17997 1.24954 
1.31187 1.36763 1.4175 1.46216 1.50223 1.53828 6.23472 6.18928 6.14676 
6.10703 6.06994 6.03531 6.003 5.97283 5.94466 5.91832 5.89368 5.87061 
5.84898 5.82869 5.80962 5.79168 5.77479 5.75886 5.74382 0.0484633 0.0939024 
0.136421 0.176153 0.21325 0.247873 0.280185 0.310351 0.338527 0.364864 0.389502 
0.412573 0.434201 0.454497 0.473567 0.491504 0.508398 0.524326 0.539363 3.22655 
3.31947 3.41973 3.52598 3.63622 3.7479 3.85829 3.96483 4.06546 4.15881 
4.24422 4.32156 4.39113 4.45346 4.50922 4.55909 4.60375 4.64383 4.67987 
3.05664 2.96371 2.86346 2.75721 2.64697 2.53528 2.42489 2.31836 2.21773 
2.12437 2.03896 1.96162 1.89206 1.82972 1.77397 1.72409 1.67943 1.63936 
1.60331 3.19006 3.2355 3.27801 3.31775 3.35484 3.38947 3.42178 3.45194 
3.48012 3.50646 3.53109 3.55417 3.57579 3.59609 3.61516 3.6331 3.64999 
3.66592 3.68096 3.09313 3.04769 3.00517 2.96544 2.92834 2.89372 2.86141 
2.83124 2.80307 2.77673 2.75209 2.72902 2.70739 2.6871 2.66803 2.65009 
2.63319 2.61727 2.60223 6.28319 6.28319 6.28319 6.28319 6.28319 6.28319 
6.28319 6.28319 6.28319 3.14159 3.14159 3.14159 3.14159 3.14159 3.14159 
3.14159 3.14159 3.14159 3.14159 6.19823 6.1053 6.00505 5.8988 5.78856 
5.67687 5.56648 5.45995 5.35932 5.26596 5.18056 5.10322 5.03365 4.97131 
4.91556 4.86569 4.82102 4.78095 4.74491 0.0849547 0.177881 0.278134 0.384387 
0.494626 0.606312 0.716702 0.823235 0.923864 1.01722 1.10263 1.17997 1.24954 
1.31187 1.36763 1.4175 1.46216 1.50223 1.53828 6.23472 6.18928 6.14676 
6.10703 6.06994 6.03531 6.003 5.97283 5.94466 5.91832 5.89368 5.87061 
5.84898 5.82869 5.80962 5.79168 5.77479 5.75886 5.74382 0.0484633 0.0939024 
0.136421 0.176153 0.21325 0.247873 0.280185 0.310351 0.338527 0.364864 0.389502 
0.412573 0.434201 0.454497 0.473567 0.491504 0.508398 0.524326 0.539363 3.22655 
3.31947 3.41973 3.52598 3.63622 3.7479 3.85829 3.96483 4.06546 4.15881 
4.24422 4.32156 4.39113 4.45346 4.50922 4.55909 4.60375 4.64383 4.67987 
3.05664 2.96371 2.86346 2.75721 2.64697 2.53528 2.42489 2.31836 2.21773 
2.12437 2.03896 1.96162 1.89206 1.82972 1.77397 1.72409 1.67943 1.63936 
1.60331 3.19006 3.2355 3.27801 3.31775 3.35484 3.38947 3.42178 3.45194 
3.48012 3.50646 3.53109 3.55417 3.57579 3.59609 3.61516 3.6331 3.64999 
3.66592 3.68096 3.09313 3.04769 3.00517 2.96544 2.92834 2.89372 2.86141 
2.83124 2.80307 2.77673 2.75209 2.72902 2.70739 2.6871 2.66803 2.65009 
2.63319 2.61727 2.60223 4.71239 4.71239 4.71239 4.71239 4.71239 4.71239 
4.71239 4.71239 4.71239 4.71239 4.71239 4.71239 4.71239 4.71239 4.71239 
4.71239 4.71239 4.71239 4.71239 4.66146 4.60879 4.55459 4.49914 4.44273 
4.3857 4.32843 4.27128 4.21462 4.15881 4.10417 4.05096 3.99943 3.94976 
3.90207 3.85646 3.81297 3.77161 3.73236 4.76332 4.81599 4.87018 4.92564 
4.98205 5.03907 5.09635 5.1535 5.21015 5.26596 5.32061 5.37381 5.42534 
5.47502 5.5227 5.56831 5.6118 5.65317 5.69242 4.66146 4.60879 4.55459 
4.49914 4.44273 4.3857 4.32843 4.27128 4.21462 4.15881 4.10417 4.05096 
3.99943 3.94976 3.90207 3.85646 3.81297 3.77161 3.73236 4.76332 4.81599 
4.87018 4.92564 4.98205 5.03907 5.09635 5.1535 5.21015 5.26596 5.32061 
5.37381 5.42534 5.47502 5.5227 5.56831 5.6118 5.65317 5.69242 1.5708 
1.5708 1.5708 1.5708 1.5708 1.5708 1.5708 1.5708 1.5708 1.5708 
1.5708 1.5708 1.5708 1.5708 1.5708 1.5708 1.5708 1.5708 1.5708 
1.62173 1.6744 1.72859 1.78405 1.84046 1.89748 1.95476 2.01191 2.06856 
2.12437 2.17902 2.23222 2.28375 2.33343 2.38111 2.42672 2.47021 2.51157 
2.55083 1.51987 1.4672 1.413 1.35755 1.30114 1.24411 1.18684 1.12969 
1.07303 1.01722 0.962575 0.909371 0.857841 0.808166 0.760481 0.714871 0.671381 
0.63002 0.590766 1.62173 1.6744 1.72859 1.78405 1.84046 1.89748 1.95476 
2.01191 2.06856 2.12437 2.17902 2.23222 2.28375 2.33343 2.38111 2.42672 
2.47021 2.51157 2.55083 1.51987 1.4672 1.413 1.35755 1.30114 1.24411 
1.18684 1.12969 1.07303 1.01722 0.962575 0.909371 0.857841 0.808166 0.760481 
0.714871 0.671381 0.63002 0.590766 3.64921 3.60077 3.5499 3.49669 3.4413 
3.38395 3.32492 3.26458 3.20332 3.14159 3.07987 3.01861 2.95826 2.89924 
2.84188 2.78649 2.73328 2.68241 2.63398 5.77557 5.82401 5.87488 5.92808 
5.98348 6.04083 6.09986 6.1602 6.22146 6.28319 0.0617249 0.122983 0.183328 
0.242354 0.299709 0.355101 0.40831 0.459179 0.507614 6.18829 6.08362 6.17573 
5.97021 6.05603 6.15936 5.85015 5.92582 6.01978 6.13714 5.72651 5.78856 
5.8676 5.97021 6.1053 5.60297 5.64905 5.70877 5.78856 5.8988 6.05603 
5.48318 5.51259 5.55097 5.60297 5.67687 5.78856 5.97021 5.37016 5.38384 
5.40162 5.42567 5.45995 5.51259 5.60297 5.78856 5.26596 5.26596 5.26596 
5.26596 5.26596 5.26596 5.26596 5.26596 5.26596 5.17157 5.16047 5.14643 
5.12811 5.10322 5.06749 5.0121 4.91556 4.71239 4.15881 5.0871 5.06749 
5.04313 5.0121 4.97131 4.91556 4.83537 4.71239 4.50922 4.15881 3.63622 
5.0121 4.98625 4.95474 4.91556 4.86569 4.80045 4.71239 4.58941 4.41268 
4.15881 3.82181 3.45456 4.94576 4.91556 4.87937 4.83537 4.78095 4.71239 
4.62433 4.50922 4.35729 4.15881 3.91219 3.63622 3.36875 4.88717 4.85406 
4.81503 4.76852 4.71239 4.64383 4.55909 4.45346 4.32156 4.15881 3.96483 
3.7479 3.52598 3.31947 4.83537 4.80045 4.75989 4.71239 4.65626 4.58941 
4.50922 4.41268 4.29667 4.15881 3.99911 3.82181 3.63622 3.45456 3.28764 
4.78949 4.75357 4.71239 4.66488 4.60975 4.5454 4.47003 4.38165 4.27834 
4.15881 4.02316 3.8738 3.71601 3.55717 3.405 3.26542 4.74873 4.71239 
4.67121 4.62433 4.57072 4.50922 4.43852 4.35729 4.26431 4.15881 4.04094 
3.91219 3.77573 3.63622 3.49895 3.36875 3.24905 4.71239 4.67605 4.63529 
4.58941 4.53761 4.47901 4.41268 4.33768 4.25321 4.15881 4.05462 3.9416 
3.82181 3.69826 3.57462 3.45456 3.34115 3.23649 6.15052 6.10626 6.05947 
6.06526 6.01742 5.96238 6.02728 5.97885 5.92367 5.86063 5.9921 5.94343 
5.88847 5.82633 5.75608 5.95951 5.91088 5.85642 5.79541 5.72713 5.65096 
5.92928 5.88092 5.82717 5.76745 5.7012 5.62798 5.54754 5.90123 5.8533 
5.80041 5.74207 5.67787 5.60749 5.53079 5.4479 5.87516 5.8278 5.77587 
5.71897 5.65679 5.58911 5.51587 5.43724 5.35368 5.8509 5.80421 5.7533 
5.69787 5.63767 5.57256 5.50252 5.42776 5.34868 5.26596 5.82829 5.78235 
5.73251 5.67854 5.62025 5.55757 5.4905 5.41926 5.34421 5.26596 5.18531 
5.8072 5.76205 5.7133 5.66077 5.60434 5.54394 5.47963 5.4116 5.34021 
5.26596 5.18956 5.11181 5.7875 5.74316 5.69552 5.64441 5.58974 5.5315 
5.46975 5.40467 5.33659 5.26596 5.19338 5.11955 5.04526 5.76905 5.72557 
5.67901 5.62929 5.57631 5.5201 5.46072 5.39836 5.33331 5.26596 5.19684 
5.12655 5.05578 4.98522 5.75177 5.70914 5.66367 5.61528 5.56392 5.50962 
5.45246 5.3926 5.33032 5.26596 5.19999 5.13292 5.06535 4.99789 4.93115 
5.73555 5.69377 5.64937 5.60227 5.55246 5.49996 5.44486 5.38732 5.32758 
5.26596 5.20286 5.13874 5.07411 5.0095 4.94545 4.88248 5.7203 5.67937 
5.63601 5.59016 5.54182 5.49102 5.43785 5.38246 5.32507 5.26596 5.20549 
5.14407 5.08213 5.02016 4.95863 4.89798 4.83863 5.70595 5.66586 5.62352 
5.57887 5.53193 5.48273 5.43136 5.37797 5.32275 5.26596 5.20792 5.14897 
5.08952 5.02999 4.97079 4.91233 4.85498 4.79908 5.65317 5.6118 5.6118 
5.56831 5.56831 5.56831 5.5227 5.5227 5.5227 5.5227 5.47502 5.47502 
5.47502 5.47502 5.47502 5.42534 5.42534 5.42534 5.42534 5.42534 5.42534 
5.37381 5.37381 5.37381 5.37381 5.37381 5.37381 5.37381 5.32061 5.32061 
5.32061 5.32061 5.32061 5.32061 5.32061 5.32061 5.26596 5.26596 5.26596 